Starting run at: Mon Mar 25 04:18:30 EDT 2024
 --invoking executable--
/cvmfs/restricted.computecanada.ca/easybuild/software/2020/avx2/Compiler/intel2020/cfour/2.1/bin/xjoda


   *************************************************************************
         <<<     CCCCCC     CCCCCC   |||     CCCCCC     CCCCCC   >>>
       <<<      CCC        CCC       |||    CCC        CCC         >>>
      <<<      CCC        CCC        |||   CCC        CCC            >>>
    <<<        CCC        CCC        |||   CCC        CCC              >>>
      <<<      CCC        CCC        |||   CCC        CCC            >>>
       <<<      CCC        CCC       |||    CCC        CCC         >>>
         <<<     CCCCCC     CCCCCC   |||     CCCCCC     CCCCCC   >>>
   *************************************************************************

     ****************************************************************
     * CFOUR Coupled-Cluster techniques for Computational Chemistry *
     ****************************************************************
 

   Department of Chemistry                Institut fuer Physikalische Chemie
   University of Florida                  Universitaet Mainz
   Gainesville, FL 32611, USA             D-55099 Mainz, Germany

   Department of Chemistry                Fakultaet fuer Chemie und Biowiss.
   Johns Hopkins University               Karlsruher Institut fuer Technologie
   Baltimore, MD 21218, USA               D-76131 Karlsruhe, Germany

   Department of Chemistry                Department of Physical Chemistry
   Southern Methodist University          Eotvos Lorand University
   Dallas, TX 75275, USA                  H-1053 Budapest, Hungary

 
                       Version 2.1
 
                     gra299                                            
                     Mon Mar 25 04:18:30 EDT 2024                      
                     integer*8 version is running
 
********************************************************************************
*                          Input from ZMAT file                                *
********************************************************************************
TITLE                                                                           
F                                                                               
                                                                                
*ACES2(CALC=CCSDT                                                               
#FROZEN_CORE=ON                                                                 
#DROPMO=1                                                                       
#INPUT_MRCC=OFF                                                                 
#CC_PROG=MRCC                                                                   
XFORM_TOL=18                                                                    
SAVE_INTS=ON                                                                    
SCF_EXPORDER=6                                                                  
SCF_EXPSTART=5                                                                  
#SCF_DAMPING=1000                                                               
SCF_EXTRAPOLATION=ON                                                            
SCF_CONV=10                                                                     
SCF_MAXCYC=9999                                                                 
CC_CONV=10                                                                      
CC_MAXCYC=999                                                                   
T3_EXTRAPOL=ON                                                                  
REFERENCE=ROHF                                                                  
CHARGE=+0                                                                       
MULT=2                                                                          
ABCDTYPE=STANDARD                                                               
OCCUPATION=2-1-1-0-1-0-0-0/2-1-1-0-0-0-0-0                                      
MEM=20                                                                          
MEM_UNIT=GB                                                                     
BASIS=SPECIAL)                                                                  
                                                                                
F:aCV5Z-EMSL                                                                    
                                                                                
********************************************************************************
  @GTFLGS-W, Keyword #FROZEN_CORE not known and is ignored.
  @GTFLGS-W, Keyword #DROPMO not known and is ignored.
  @GTFLGS-W, Keyword #INPUT_MRCC not known and is ignored.
  @GTFLGS-W, Keyword #CC_PROG not known and is ignored.
  @GTFLGS-W, Keyword #SCF_DAMPING not known and is ignored.
    -------------------------------------------------------------------
                    CFOUR Control Parameters 
    -------------------------------------------------------------------
        External           Internal           Value            Units
          Name               Name
    -------------------------------------------------------------------
       ABCDTYPE             IABCDT         STANDARD    [  0]    ***   
       ANHARMONIC           IANHAR         OFF         [  0]    ***   
       ANH_ALGORIT          IANALG         STANDARD    [  0]    ***   
       ANH_DERIVAT          IANDER         SECOND      [  1]    ***   
       ANH_MODE             ANHMOD         VIBRATION   [  0]    ***   
       ANH_STEPSIZ          ICUBST             50000          x 10-6  
       ANH_SYMMETR          IANHSM         ABELIAN     [  0]    ***   
       AO_LADDERS           IAOLAD         SINGLEPASS  [  1]    ***   
       AV_SCF               IAVSCF         OFF         [  0]    ***   
       BASIS                IBASIS         SPECIAL     [  0]    ***   
       BOTHVECTORS          BOTHVC         OFF         [  0]    ***   
       BOX_POTENT           IPIAB          OFF         [  0]    ***   
       BREIT                IBREIT         OFF         [  0]    ***   
       BRUCK_CONV           IBRTOL          10D-  4             ***   
       BRUECKNER            IBRKNR         OFF         [  0]    ***   
       BUFFERSIZE           IBUFFS              4096            ***   
       CACHE_RECS           ICHREC             10               ***   
       CALCLEVEL            ICLLVL         CCSDT       [ 18]    ***   
       CCORBOPT             ICCORB         OFF         [  0]  x 0.01  
       CC_CONV              ICCCNV          10D- 10             ***   
       CC_EXPORDER          ICCEOR              5               ***   
       CC_EXTRAPOL          ICCEXT         DIIS        [  1]    ***   
       CC_GUESS             ICCGES         MP2         [  0]    ***   
       CC_MAXCYC            ICCCYC            999              cycles 
       CC_PROGRAM           ICCPRO         VCC         [  0]    ***   
       CHARGE               ICHRGE              0               ***   
       CHOLESKY             ICHOLE         OFF         [  0]    ***   
       CIS_CONV             ICISTL              5               ***   
       COMM_SIZE            IPSIZE            ***               ***   
       CONSTANT             ICONST         OLD         [  1]    ***   
       CONTINUUM            ICONTU         NONE        [  0]    ***   
       CONTRACTION          ICNTYP         GENERAL     [  1]    ***   
       COORDINATES          ICOORD         INTERNAL    [  0]    ***   
       CPHF_CONVER          ICPHFT          10D- 16             ***   
       CPHF_MAXCYC          ICPHFC             64              cycles 
       CUBIC                ICUBIC         OFF         [  0]    ***   
       CURVILINEAR          ICURVY         OFF         [  0]    ***   
       DBOC                 IDBOC          OFF         [  0]    ***   
       DCT                  IDCT           OFF         [  0]    ***   
       DERIV_LEV            IDRLVL         ZERO        [  0]    ***   
       DEVMEM_SIZE          IDVMEM         *********           MByte  
       DIAG_MRCC            IEOMST          10D-  0             ***   
       DIFF_TYPE            IDIFTY         RELAXED     [  0]    ***   
       DIRECT               IDIRCT         OFF         [  0]    ***   
       DROPMO               IDRPMO      NONE         
       ECP                  IECP           OFF         [  0]    ***   
       EIGENVECTOR          IVEC                1               ***   
       EL_ANHARM            IELANH         OFF         [  0]    ***   
       EOMFOLLOW            IEOMSR         ENERGY      [  0]    ***   
       EOMIP                IEOMIP         OFF         [  0]    ***   
       EOMLEVEL             HBARFM         SAME        [  0]    ***   
       EOM_MRCC             IMRCCE         NEW         [  1]    ***   
       EOM_NONIT            EOMNON         OFF         [  0]    ***   
       EOM_NSING            IEOMSI          10D-  0             ***   
       EOM_NSTATES          IMRCCD         DAVIDSON    [  0]    ***   
       EOM_NTRIP            IEOMTR          10D-  0             ***   
       EOM_ORDER            IEXORD         ENERGY      [  0]    ***   
       EOM_PROPSTA          IEOMST              0               ***   
       ESTATE_CONV          IEXTOL          10D-  5             ***   
       ESTATE_DIAG          IEXDIG         ITERATIVE   [  0]    ***   
       ESTATE_LOCK          IESLOC         ON          [  1]    ***   
       ESTATE_MAXC          IEXMXC             40               ***   
       ESTATE_PROP          IEXPRP         OFF         [  0]    ***   
       EVAL_HESS            IRECAL              0            # of cyc.
       EXCITATION           IEXCIT              0               ***   
       EXCITE               IEXCIT         NONE        [  0]    ***   
       EXTERN_POT           IEXPOT         OFF         [  0]    ***   
       FCGRADNEW            IFCGNW         OFF         [  0]    ***   
       FC_FIELD             IFINFC              0             x 10-6  
       FD_CALTYPE           IFDCAL         GRADONLY    [  0]    ***   
       FD_PROJECT           IFDPRJ         OFF         [  1]    ***   
       FD_STEPSIZE          IDISFD              0            10-4 bohr
       FD_USEGROUP          IFDGRP         FULL        [  0]    ***   
       FILE_RECSIZ          IFLREC              4096           words  
       FINITE_PERT          IFIPER              0             x 10-6  
       FIXGEOM              IFIXGM         OFF         [  0]    ***   
       FOCK                 IFOCK          AO          [  1]    ***   
       FREQ_ALGORI          IVIALG         STANDARD    [  0]    ***   
       FROZEN_CORE          IFROCO         OFF         [  0]    ***   
       GAMMA_ABCD           IGABCD         STORE       [  0]    ***   
       GAMMA_ABCI           IGABCI         STORE       [  0]    ***   
       GENBAS_1             IGNBS1              0               ***   
       GENBAS_2             IGNBS2              0               ***   
       GENBAS_3             IGNBS3              0               ***   
       GENBAS_4             IGNBS4              0               ***   
       GEO_CONV             ICONTL              5              H/bohr 
       GEO_MAXCYC           IOPTCY             50               ***   
       GEO_MAXSTEP          IMXSTP            300            millibohr
       GEO_METHOD           INR            SINGLE_POINT[  5]    ***   
       GIAO                 IGIAO          OFF         [  1]    ***   
       GIMIC                IGIMIC         OFF         [  0]    ***   
       GRID                 IGRID          OFF         [  0]    ***   
       GRID_ALGO            IGALGO         SERIAL      [  0]    ***   
       GUESS                IGUESS         MOREAD      [  0]    ***   
       HBAR                 IHBAR          OFF         [  0]    ***   
       HESS_TYPE            IHESTP         SCF         [  0]    ***   
       HF2_FILE             IHF2Fl         USE         [  1]    ***   
       HFSTABILITY          ISTABL         OFF         [  0]    ***   
       INCORE               INCORE         OFF         [  0]    ***   
       INPUT_MRCC           IMRCC          ON          [  1]    ***   
       INTEGRALS            INTTYP         VMOL        [  1]    ***   
       JODA_PRINT           IJPRNT              0               ***   
       KEYWORD_OUT          IDMPKW         NO          [  0]    ***   
       LINDEP_TOL           ILINDP              8               ***   
       LINEQ_CONV           IZTACN          10D-  7           cycles  
       LINEQ_EXPOR          ILMAXD              5               ***   
       LINEQ_MAXCY          ILMAXC            100               ***   
       LINEQ_TYPE           ILTYPE         DIIS        [  1]    ***   
       LOCK_ORBOCC          ILOCOC         OFF         [  0]    ***   
       MEMORY_SIZE          IMEMSZ         *********           words  
       MEM_UNIT             IMEMU          GB          [  3]    ***   
       MRCC                 IMRCCC         OFF         [  0]    ***   
       MULTIPLICTY          IMULTP              2               ***   
       NACOUPLING           IVCOUP         OFF         [  0]    ***   
       NEGEVAL              IDIE           ABORT       [  0]    ***   
       NEWNORM              INEWNO         OFF         [  0]    ***   
       NON-HF               INONHF         ON          [  1]    ***   
       NTOP_TAMP            ITOPT2             15               ***   
       NUC_MODEL            INUCMO         POINT       [  0]    ***   
       OCCUPATION           IOCCU  A   2,  1,  1,  0,  1,  0,  0,  0,
                                   B   2,  1,  1,  0,  0,  0,  0,  0,
       OPEN-SHELL           IOPEN          SPIN-ORBITAL[  0]    ***   
       OPTVIB               IOPTVB         OFF         [  0]    ***   
       ORBITALS             IORBTP         SEMICANONICA[  1]    ***   
       PARALLEL             IPARAL         ON          [  1]    ***   
       PARA_INT             IPINTS         ON          [  1]    ***   
       PARA_PRINT           IPPRIN              0               ***   
       PERT_ORB             IPTORB         STANDARD    [  0]    ***   
       POINTS               IGRDFD              0               ***   
       PRINT                IPRNT               0               ***   
       PROPS                IPROPS         OFF         [  0]    ***   
       PROP_INTEGR          IINTYP         INTERNAL    [  0]    ***   
       PSI                  IPSI           OFF         [  0]    ***   
       QC_ALG               IQCALG         FLM         [  0]    ***   
       QC_LINALG            IQCLIN         TRIDIAG     [  2]    ***   
       QC_MAXCYC            IQCMAX          10D-100           cycles  
       QC_MAXSCFCY          IQCMSC          10D- 15           cycles  
       QC_RTRUST            IQCRTR          10D-  0           x 10-3  
       QC_SKIPSCF           IQCSKI         OFF         [  0]    ***   
       QC_START             IQCSTA          10D-  1             ***   
       QRHFGUESS            IQGUES         OFF         [  0]    ***   
       QUARTIC              IQUART         OFF         [  0]    ***   
       RAMAN_INT            IRAMIN         OFF         [  0]    ***   
       RAMAN_ORB            IRAMRE         UNRELAXED   [  0]    ***   
       RDO                  IRDOFM         OFF         [  0]    ***   
       REDUCE_REPR          REDREP         Ir          [  0]    ***   
       REFERENCE            IREFNC         ROHF        [  2]    ***   
       RELATIVIST           IRELAT         OFF         [  0]    ***   
       RELAX_DENS           IRDENS         OFF         [  0]    ***   
       RESET_FLAGS          IRESET         OFF         [  0]    ***   
       RESTART_CC           ICCRES         OFF         [  0]    ***   
       ROT_EVEC             ROTVEC              0               ***   
       SAVE_INTS            ISVINT         ON          [  1]    ***   
       SCALE_ON             ISTCRT              0               ***   
       SCF_CONV             ISCFCV          10D- 10             ***   
       SCF_DAMPING          IDAMP               0             x 10-3  
       SCF_EXPORDE          IRPPOR              6               ***   
       SCF_EXPSTAR          IRPPLS              5               ***   
       SCF_EXTRAPO          IRPP           ON          [  1]    ***   
       SCF_MAXCYC           ISCFCY            ***              cycles 
       SCF_NOSTOP           ISCFST         OFF         [  0]    ***   
       SCF_PRINT            ISCFPR              0               ***   
       SCF_PROG             ISCFPR         SCF         [  0]    ***   
       SD_FIELD             IFINSD              0             x 10-6  
       SOPERT               IPERSO         OFF         [  0]    ***   
       SPHERICAL            IDFGHI         ON          [  1]    ***   
       SPINORBIT            ISOCAL         OFF         [  0]    ***   
       SPINROTATIO          ISRCON         OFF         [  0]    ***   
       SPIN_FLIP            ISPFLP         OFF         [  0]    ***   
       SPIN_ORBIT           ISPORB         OFF         [  0]    ***   
       SPIN_SCAL            ISCSMP         OFF         [  0]    ***   
       STEEPSCALE           ISTPSC              1000          x 10-3  
       SUBGROUP             ISUBGP         DEFAULT     [  0]    ***   
       SUBGRPAXIS           ISBXYZ         X           [  0]    ***   
       SYMMETRY             ISYM           ON          [  0]    ***   
       SYM_CHECK            ISYMCK         OVERRIDE    [  1]    ***   
       T3_EXTRAPOL          IT3EXT         ON          [  1]    ***   
       T4_EXTRAPOL          IT4EXP         OFF         [  0]    ***   
       TAMP_SUM             IEVERY              5               ***   
       TESTSUITE            ITESTS         OFF         [  0]    ***   
       THERMOCH             ITHERM         OFF         [  0]    ***   
       TOL_CHOLESK          ITOLCH          10D-  4             ***   
       TRANGRAD             IRESRM         OFF         [  0]    ***   
       TRANS_INV            ITRAIN         USE         [  0]    ***   
       TREAT_PERT           ITREAT         SIMULTANEOUS[  0]    ***   
       TRIP_ALGORI          ITRALG         NORMAL      [  0]    ***   
       UIJ_THRESHO          IUIJTH              1               ***   
       UNITS                IUNITS         ANGSTROM    [  0]    ***   
       UNOS                 IUNOS          OFF         [  0]    ***   
       UPDATE_HESS          IHUPDT         ON          [  1]    ***   
       VIBPHASE             ISETPH         STANDARD    [  0]    ***   
       VIBRATION            IVIB           NO          [  0]    ***   
       VIB_ALGORIT          IGEALG         STANDARD    [  0]    ***   
       VNATORB              IVNORB         OFF         [  0]    ***   
       VTRAN                IVTRAN         FULL/PARTIAL[  0]    ***   
       XFIELD               IXEFLD              0             x 10-6  
       XFORM_TOL            IXFTOL          10D- 18             ***   
       YFIELD               IYEFLD              0             x 10-6  
       ZFIELD               IZEFLD              0             x 10-6  
       ZSCALE_EXP           IZEXPS         OFF         [  0]    ***   
    -------------------------------------------------------------------
   1 entries found in Z-matrix 
   Job Title : TITLE                                                                           
   Rotational constants (in cm-1): 

   Rotational constants (in MHz): 

********************************************************************************
   The full molecular point group is I h .
   The largest Abelian subgroup of the full molecular point group is D2h .
   The computational point group is D2h .
********************************************************************************
  ECPDATA file not present.   Using default ECPDATA. 
  @GTFLGS-W, Keyword #FROZEN_CORE not known and is ignored.
  @GTFLGS-W, Keyword #DROPMO not known and is ignored.
  @GTFLGS-W, Keyword #INPUT_MRCC not known and is ignored.
  @GTFLGS-W, Keyword #CC_PROG not known and is ignored.
  @GTFLGS-W, Keyword #SCF_DAMPING not known and is ignored.
  There are  181 basis functions.
 @GEOPT-W, Archive file not created for single-point calculation.
 @CHECKOUT-I, Total execution time (CPU/WALL):        0.26/       3.60 seconds.
--executable xjoda finished with status     0 in        3.66 seconds (walltime).
 --invoking executable--
/cvmfs/restricted.computecanada.ca/easybuild/software/2020/avx2/Compiler/intel2020/cfour/2.1/bin/xvmol
 SERIAL VERSION OF MOLECULE STARTED
********************************************************************************
                    INPUT FROM MOL FILE
********************************************************************************
INTGRL        1    0    1    0    0    0    0    0    0                         
         *** CFOUR Program System (Release V0.1) ***                            
TITLE                                                                           
    1    3 X  Y   Z   0.10E-08              0    0                              
   9999.00      3.00                                                            
          9.00000000    1    6    1    1    1    1    1    1                    
F #1   0.000000000000000   0.000000000000000   0.000000000000000                
   19   11                                                                      
   211400.000000000       2.600000000000000E-005 -6.000000000000000E-006        
  0.000000000000000E+000  0.000000000000000E+000  0.000000000000000E+000        
  0.000000000000000E+000  0.000000000000000E+000  0.000000000000000E+000        
  0.000000000000000E+000  0.000000000000000E+000  0.000000000000000E+000        
   31660.0000000000       2.010000000000000E-004 -4.700000000000000E-005        
  0.000000000000000E+000  0.000000000000000E+000  0.000000000000000E+000        
  0.000000000000000E+000  0.000000000000000E+000  0.000000000000000E+000        
  0.000000000000000E+000  0.000000000000000E+000  0.000000000000000E+000        
   7202.00000000000       1.056000000000000E-003 -2.440000000000000E-004        
  0.000000000000000E+000  0.000000000000000E+000  0.000000000000000E+000        
  0.000000000000000E+000  0.000000000000000E+000  0.000000000000000E+000        
  0.000000000000000E+000  0.000000000000000E+000  0.000000000000000E+000        
   2040.00000000000       4.432000000000000E-003 -1.031000000000000E-003        
  0.000000000000000E+000  0.000000000000000E+000  0.000000000000000E+000        
  0.000000000000000E+000  0.000000000000000E+000  0.000000000000000E+000        
  0.000000000000000E+000  0.000000000000000E+000  0.000000000000000E+000        
   666.400000000000       1.576600000000000E-002 -3.683000000000000E-003        
  0.000000000000000E+000  0.000000000000000E+000  0.000000000000000E+000        
  0.000000000000000E+000  0.000000000000000E+000  0.000000000000000E+000        
  0.000000000000000E+000  0.000000000000000E+000  0.000000000000000E+000        
   242.000000000000       4.811200000000000E-002 -1.151300000000000E-002        
  0.000000000000000E+000  0.000000000000000E+000  0.000000000000000E+000        
  0.000000000000000E+000  0.000000000000000E+000  0.000000000000000E+000        
  0.000000000000000E+000  0.000000000000000E+000  0.000000000000000E+000        
   95.5300000000000       0.123232000000000      -3.066300000000000E-002        
  0.000000000000000E+000  0.000000000000000E+000  0.000000000000000E+000        
  0.000000000000000E+000  0.000000000000000E+000  0.000000000000000E+000        
  0.000000000000000E+000  0.000000000000000E+000  0.000000000000000E+000        
   40.2300000000000       0.251519000000000      -6.957199999999999E-002        
  0.000000000000000E+000  0.000000000000000E+000  0.000000000000000E+000        
  0.000000000000000E+000  0.000000000000000E+000  0.000000000000000E+000        
  0.000000000000000E+000  0.000000000000000E+000  0.000000000000000E+000        
   17.7200000000000       0.364525000000000      -0.123992000000000             
  0.000000000000000E+000  0.000000000000000E+000  0.000000000000000E+000        
  0.000000000000000E+000  0.000000000000000E+000  0.000000000000000E+000        
  0.000000000000000E+000  0.000000000000000E+000  0.000000000000000E+000        
   8.00500000000000       0.279766000000000      -0.150214000000000             
  0.000000000000000E+000  0.000000000000000E+000  0.000000000000000E+000        
  0.000000000000000E+000  0.000000000000000E+000  0.000000000000000E+000        
  0.000000000000000E+000  0.000000000000000E+000  0.000000000000000E+000        
   3.53800000000000       6.354500000000000E-002  1.646000000000000E-002        
   1.00000000000000       0.000000000000000E+000  0.000000000000000E+000        
  0.000000000000000E+000  0.000000000000000E+000  0.000000000000000E+000        
  0.000000000000000E+000  0.000000000000000E+000  0.000000000000000E+000        
   1.45800000000000       1.111000000000000E-003  0.392550000000000             
  0.000000000000000E+000   1.00000000000000       0.000000000000000E+000        
  0.000000000000000E+000  0.000000000000000E+000  0.000000000000000E+000        
  0.000000000000000E+000  0.000000000000000E+000  0.000000000000000E+000        
  0.588700000000000       1.258000000000000E-003  0.532164000000000             
  0.000000000000000E+000  0.000000000000000E+000   1.00000000000000             
  0.000000000000000E+000  0.000000000000000E+000  0.000000000000000E+000        
  0.000000000000000E+000  0.000000000000000E+000  0.000000000000000E+000        
  0.232400000000000      -3.500000000000000E-005  0.196524000000000             
  0.000000000000000E+000  0.000000000000000E+000  0.000000000000000E+000        
   1.00000000000000       0.000000000000000E+000  0.000000000000000E+000        
  0.000000000000000E+000  0.000000000000000E+000  0.000000000000000E+000        
   19.8760000000000       0.000000000000000E+000  0.000000000000000E+000        
  0.000000000000000E+000  0.000000000000000E+000  0.000000000000000E+000        
  0.000000000000000E+000   1.00000000000000       0.000000000000000E+000        
  0.000000000000000E+000  0.000000000000000E+000  0.000000000000000E+000        
   44.8800000000000       0.000000000000000E+000  0.000000000000000E+000        
  0.000000000000000E+000  0.000000000000000E+000  0.000000000000000E+000        
  0.000000000000000E+000  0.000000000000000E+000   1.00000000000000             
  0.000000000000000E+000  0.000000000000000E+000  0.000000000000000E+000        
   101.339000000000       0.000000000000000E+000  0.000000000000000E+000        
  0.000000000000000E+000  0.000000000000000E+000  0.000000000000000E+000        
  0.000000000000000E+000  0.000000000000000E+000  0.000000000000000E+000        
   1.00000000000000       0.000000000000000E+000  0.000000000000000E+000        
   228.824000000000       0.000000000000000E+000  0.000000000000000E+000        
  0.000000000000000E+000  0.000000000000000E+000  0.000000000000000E+000        
  0.000000000000000E+000  0.000000000000000E+000  0.000000000000000E+000        
  0.000000000000000E+000   1.00000000000000       0.000000000000000E+000        
  8.060000000000000E-002  0.000000000000000E+000  0.000000000000000E+000        
  0.000000000000000E+000  0.000000000000000E+000  0.000000000000000E+000        
  0.000000000000000E+000  0.000000000000000E+000  0.000000000000000E+000        
  0.000000000000000E+000  0.000000000000000E+000   1.00000000000000             
   13   10                                                                      
   241.900000000000       1.002000000000000E-003  0.000000000000000E+000        
  0.000000000000000E+000  0.000000000000000E+000  0.000000000000000E+000        
  0.000000000000000E+000  0.000000000000000E+000  0.000000000000000E+000        
  0.000000000000000E+000  0.000000000000000E+000                                
   57.1700000000000       8.054000000000000E-003  0.000000000000000E+000        
  0.000000000000000E+000  0.000000000000000E+000  0.000000000000000E+000        
  0.000000000000000E+000  0.000000000000000E+000  0.000000000000000E+000        
  0.000000000000000E+000  0.000000000000000E+000                                
   18.1300000000000       3.804800000000000E-002  0.000000000000000E+000        
  0.000000000000000E+000  0.000000000000000E+000  0.000000000000000E+000        
  0.000000000000000E+000  0.000000000000000E+000  0.000000000000000E+000        
  0.000000000000000E+000  0.000000000000000E+000                                
   6.62400000000000       0.123779000000000       0.000000000000000E+000        
  0.000000000000000E+000  0.000000000000000E+000  0.000000000000000E+000        
  0.000000000000000E+000  0.000000000000000E+000  0.000000000000000E+000        
  0.000000000000000E+000  0.000000000000000E+000                                
   2.62200000000000       0.266060000000000        1.00000000000000             
  0.000000000000000E+000  0.000000000000000E+000  0.000000000000000E+000        
  0.000000000000000E+000  0.000000000000000E+000  0.000000000000000E+000        
  0.000000000000000E+000  0.000000000000000E+000                                
   1.05700000000000       0.371796000000000       0.000000000000000E+000        
   1.00000000000000       0.000000000000000E+000  0.000000000000000E+000        
  0.000000000000000E+000  0.000000000000000E+000  0.000000000000000E+000        
  0.000000000000000E+000  0.000000000000000E+000                                
  0.417600000000000       0.332890000000000       0.000000000000000E+000        
  0.000000000000000E+000   1.00000000000000       0.000000000000000E+000        
  0.000000000000000E+000  0.000000000000000E+000  0.000000000000000E+000        
  0.000000000000000E+000  0.000000000000000E+000                                
  0.157400000000000       0.128491000000000       0.000000000000000E+000        
  0.000000000000000E+000  0.000000000000000E+000   1.00000000000000             
  0.000000000000000E+000  0.000000000000000E+000  0.000000000000000E+000        
  0.000000000000000E+000  0.000000000000000E+000                                
   17.3060000000000       0.000000000000000E+000  0.000000000000000E+000        
  0.000000000000000E+000  0.000000000000000E+000  0.000000000000000E+000        
   1.00000000000000       0.000000000000000E+000  0.000000000000000E+000        
  0.000000000000000E+000  0.000000000000000E+000                                
   43.6630000000000       0.000000000000000E+000  0.000000000000000E+000        
  0.000000000000000E+000  0.000000000000000E+000  0.000000000000000E+000        
  0.000000000000000E+000   1.00000000000000       0.000000000000000E+000        
  0.000000000000000E+000  0.000000000000000E+000                                
   110.162000000000       0.000000000000000E+000  0.000000000000000E+000        
  0.000000000000000E+000  0.000000000000000E+000  0.000000000000000E+000        
  0.000000000000000E+000  0.000000000000000E+000   1.00000000000000             
  0.000000000000000E+000  0.000000000000000E+000                                
   277.938000000000       0.000000000000000E+000  0.000000000000000E+000        
  0.000000000000000E+000  0.000000000000000E+000  0.000000000000000E+000        
  0.000000000000000E+000  0.000000000000000E+000  0.000000000000000E+000        
   1.00000000000000       0.000000000000000E+000                                
  5.500000000000000E-002  0.000000000000000E+000  0.000000000000000E+000        
  0.000000000000000E+000  0.000000000000000E+000  0.000000000000000E+000        
  0.000000000000000E+000  0.000000000000000E+000  0.000000000000000E+000        
  0.000000000000000E+000   1.00000000000000                                     
    8    8                                                                      
   7.76000000000000        1.00000000000000       0.000000000000000E+000        
  0.000000000000000E+000  0.000000000000000E+000  0.000000000000000E+000        
  0.000000000000000E+000  0.000000000000000E+000  0.000000000000000E+000        
   3.03200000000000       0.000000000000000E+000   1.00000000000000             
  0.000000000000000E+000  0.000000000000000E+000  0.000000000000000E+000        
  0.000000000000000E+000  0.000000000000000E+000  0.000000000000000E+000        
   1.18500000000000       0.000000000000000E+000  0.000000000000000E+000        
   1.00000000000000       0.000000000000000E+000  0.000000000000000E+000        
  0.000000000000000E+000  0.000000000000000E+000  0.000000000000000E+000        
  0.463000000000000       0.000000000000000E+000  0.000000000000000E+000        
  0.000000000000000E+000   1.00000000000000       0.000000000000000E+000        
  0.000000000000000E+000  0.000000000000000E+000  0.000000000000000E+000        
   21.7310000000000       0.000000000000000E+000  0.000000000000000E+000        
  0.000000000000000E+000  0.000000000000000E+000   1.00000000000000             
  0.000000000000000E+000  0.000000000000000E+000  0.000000000000000E+000        
   60.9550000000000       0.000000000000000E+000  0.000000000000000E+000        
  0.000000000000000E+000  0.000000000000000E+000  0.000000000000000E+000        
   1.00000000000000       0.000000000000000E+000  0.000000000000000E+000        
   170.890000000000       0.000000000000000E+000  0.000000000000000E+000        
  0.000000000000000E+000  0.000000000000000E+000  0.000000000000000E+000        
  0.000000000000000E+000   1.00000000000000       0.000000000000000E+000        
  0.172000000000000       0.000000000000000E+000  0.000000000000000E+000        
  0.000000000000000E+000  0.000000000000000E+000  0.000000000000000E+000        
  0.000000000000000E+000  0.000000000000000E+000   1.00000000000000             
    6    6                                                                      
   5.39800000000000        1.00000000000000       0.000000000000000E+000        
  0.000000000000000E+000  0.000000000000000E+000  0.000000000000000E+000        
  0.000000000000000E+000                                                        
   2.07800000000000       0.000000000000000E+000   1.00000000000000             
  0.000000000000000E+000  0.000000000000000E+000  0.000000000000000E+000        
  0.000000000000000E+000                                                        
  0.800000000000000       0.000000000000000E+000  0.000000000000000E+000        
   1.00000000000000       0.000000000000000E+000  0.000000000000000E+000        
  0.000000000000000E+000                                                        
   22.3370000000000       0.000000000000000E+000  0.000000000000000E+000        
  0.000000000000000E+000   1.00000000000000       0.000000000000000E+000        
  0.000000000000000E+000                                                        
   82.2900000000000       0.000000000000000E+000  0.000000000000000E+000        
  0.000000000000000E+000  0.000000000000000E+000   1.00000000000000             
  0.000000000000000E+000                                                        
  0.331000000000000       0.000000000000000E+000  0.000000000000000E+000        
  0.000000000000000E+000  0.000000000000000E+000  0.000000000000000E+000        
   1.00000000000000                                                             
    4    4                                                                      
   4.33800000000000        1.00000000000000       0.000000000000000E+000        
  0.000000000000000E+000  0.000000000000000E+000                                
   1.51300000000000       0.000000000000000E+000   1.00000000000000             
  0.000000000000000E+000  0.000000000000000E+000                                
   49.7270000000000       0.000000000000000E+000  0.000000000000000E+000        
   1.00000000000000       0.000000000000000E+000                                
  0.663000000000000       0.000000000000000E+000  0.000000000000000E+000        
  0.000000000000000E+000   1.00000000000000                                     
    2    2                                                                      
   2.99500000000000        1.00000000000000       0.000000000000000E+000        
   1.32600000000000       0.000000000000000E+000   1.00000000000000             
FINISH                                                                          
 
********************************************************************************
OMP: Info #274: omp_set_nested routine deprecated, please use omp_set_max_active_levels instead.
 ONE- AND TWO-ELECTRON INTEGRALS OVER SYMMETRY-ADAPTED AOS ARE CALCULATED.

  SPHERICAL HARMONICS ARE USED.
  
  INTEGRALS LESS THAN  0.10E-13 ARE NEGLECTED.

  NUCLEAR REPULSION ENERGY :    0.0000000000 A.U.
  @MOLECU-I, ONE ELECTRON INTEGRALS (CPU/WALL):        0.07/       0.07 SECONDS.
  @TWOEL-I,     359335 INTEGRALS OF SYMMETRY TYPE  I I I I
  @TWOEL-I,    3178649 INTEGRALS OF SYMMETRY TYPE  I J I J
  @TWOEL-I,    1828662 INTEGRALS OF SYMMETRY TYPE  I I J J
  @TWOEL-I,    7409119 INTEGRALS OF SYMMETRY TYPE  I J K L
  @TWOEL-I, TOTAL NUMBER OF 2-E INTEGRALS   12775765.
  @MOLECU-I, TWO ELECTRON INTEGRALS (CPU/WALL):       36.15/      36.21 SECONDS.
 @CHECKOUT-I, Total execution time (CPU/WALL):       36.24/      36.31 seconds.

OMP_NUM_THREADS not specified; defaulting to 1
Running with 1 threads/proc

--executable xvmol finished with status     0 in       36.35 seconds (walltime).
 --invoking executable--
/cvmfs/restricted.computecanada.ca/easybuild/software/2020/avx2/Compiler/intel2020/cfour/2.1/bin/xvmol2ja
 @GETMEM-I,  Allocated   19073 MB of main memory.
 @CHECKOUT-I, Total execution time (CPU/WALL):        0.06/       0.04 seconds.
--executable xvmol2ja finished with status     0 in        0.08 seconds (walltime).
 --invoking executable--
/cvmfs/restricted.computecanada.ca/easybuild/software/2020/avx2/Compiler/intel2020/cfour/2.1/bin/xvscf
  There are  181 functions in the AO basis.

  There are 8 irreducible representations.

       Irrep        # of functions
         1                 39
         2                 28
         3                 28
         4                 16
         5                 28
         6                 16
         7                 16
         8                 10


  Parameters for SCF calculation: 
        SCF reference function: ROHF  
  Maximum number of iterations: 9999
     Full symmetry point group: I h 
     Computational point group: D2h 
        Initial density matrix: MOREAD                 
     SCF convergence tolerance: 10**(-10)
  DIIS convergence acceleration:  ON
          Latest start for DIIS:   5
                     DIIS order:   6

     Alpha population by irrep:   2    1    1    0    1    0    0    0
      Beta population by irrep:   2    1    1    0    0    0    0    0


  Memory information:    2018302 words required.
  Fock matrices are constructed from AO integral file.
 @GETMEM-I,  Allocated      15 MB of main memory.
  Initialization and symmetry analysis required      0.003 seconds.

 total no. of electrons in initial guess :  0.000000000000000E+000
 total no. of electrons in initial guess :  0.000000000000000E+000
  --------------------------------------------------------------------
  Iteration         Total Energy            Largest Density Difference
  --------------------------------------------------------------------
       0             0.000000000000000              0.0000000000D+00
   current occupation vector 
     2  1  1  0  1  0  0  0
     2  1  1  0  0  0  0  0
       1           -87.668401751314093              0.8136707186D+01
   current occupation vector 
     2  1  1  0  1  0  0  0
     2  1  1  0  0  0  0  0
       2           -88.712958969458128              0.8136703380D+01
   current occupation vector 
     2  1  1  0  1  0  0  0
     2  1  1  0  0  0  0  0
       3           -96.770258506164026              0.2633710781D+01
   current occupation vector 
     2  1  1  0  1  0  0  0
     2  1  1  0  0  0  0  0
       4           -96.157239209983317              0.2633503391D+01
   current occupation vector 
     2  1  1  0  1  0  0  0
     2  1  1  0  0  0  0  0
       5           -98.570507580685032              0.1830837883D+01
   current occupation vector 
     2  1  1  0  1  0  0  0
     2  1  1  0  0  0  0  0
       6           -99.395114935381187              0.7243594689D+00
   current occupation vector 
     2  1  1  0  1  0  0  0
     2  1  1  0  0  0  0  0
       7           -99.411153645761459              0.8756196188D-01
   current occupation vector 
     2  1  1  0  1  0  0  0
     2  1  1  0  0  0  0  0
       8           -99.411200285773717              0.4537321544D-02
   current occupation vector 
     2  1  1  0  1  0  0  0
     2  1  1  0  0  0  0  0
       9           -99.411200798600603              0.1643403290D-02
   current occupation vector 
     2  1  1  0  1  0  0  0
     2  1  1  0  0  0  0  0
      10           -99.411200912494962              0.6468901711D-03
   current occupation vector 
     2  1  1  0  1  0  0  0
     2  1  1  0  0  0  0  0
      11           -99.411200921500679              0.1310303621D-03
   current occupation vector 
     2  1  1  0  1  0  0  0
     2  1  1  0  0  0  0  0
      12           -99.411200921798667              0.1924498047D-04
   current occupation vector 
     2  1  1  0  1  0  0  0
     2  1  1  0  0  0  0  0
      13           -99.411200921801424              0.2452277465D-05
   current occupation vector 
     2  1  1  0  1  0  0  0
     2  1  1  0  0  0  0  0
      14           -99.411200921802021              0.1644976301D-06
   current occupation vector 
     2  1  1  0  1  0  0  0
     2  1  1  0  0  0  0  0
      15           -99.411200921801509              0.1308283504D-07
   current occupation vector 
     2  1  1  0  1  0  0  0
     2  1  1  0  0  0  0  0
      16           -99.411200921801694              0.1140648046D-08
   current occupation vector 
     2  1  1  0  1  0  0  0
     2  1  1  0  0  0  0  0
      17           -99.411200921801921              0.4931944289D-09
   current occupation vector 
     2  1  1  0  1  0  0  0
     2  1  1  0  0  0  0  0
      18           -99.411200921802319              0.7548006994D-09
   current occupation vector 
     2  1  1  0  1  0  0  0
     2  1  1  0  0  0  0  0
      19           -99.411200921802475              0.2967499451D-09
   current occupation vector 
     2  1  1  0  1  0  0  0
     2  1  1  0  0  0  0  0
      20           -99.411200921801637              0.4392528563D-09
   current occupation vector 
     2  1  1  0  1  0  0  0
     2  1  1  0  0  0  0  0
      21           -99.411200921801594              0.6480159667D-09
   current occupation vector 
     2  1  1  0  1  0  0  0
     2  1  1  0  0  0  0  0
      22           -99.411200921801864              0.2332467552D-09
   current occupation vector 
     2  1  1  0  1  0  0  0
     2  1  1  0  0  0  0  0

  SCF has converged.

 Density matrix saved to file den.dat
 total alpha spin electron number:   5.00000000000001     
 total  beta spin electron number:   4.00000000000001     
     E(ROHF)=       -99.411200921801822              0.1556177409D-10

  Eigenvector printing suppressed.


       The average multiplicity is    2.0000000
  The expectation value of S**2 is    0.7500000

 @PUTMOS-I, Writing converged MOs to NEWMOS. 
 @PUTMOS-I, Symmetry   1 Full Blocks  9 Partial Blocksize   3
 @PUTMOS-I, Symmetry   2 Full Blocks  7 Partial Blocksize   0
 @PUTMOS-I, Symmetry   3 Full Blocks  7 Partial Blocksize   0
 @PUTMOS-I, Symmetry   4 Full Blocks  4 Partial Blocksize   0
 @PUTMOS-I, Symmetry   5 Full Blocks  7 Partial Blocksize   0
 @PUTMOS-I, Symmetry   6 Full Blocks  4 Partial Blocksize   0
 @PUTMOS-I, Symmetry   7 Full Blocks  4 Partial Blocksize   0
 @PUTMOS-I, Symmetry   8 Full Blocks  2 Partial Blocksize   2
 @PUTFOCK-I, Writing converged Fock matrix to NEWFOCK. 
 @PUTFOCK-I, Symmetry   1 Full Blocks  9 Partial Blocksize   3
 @PUTFOCK-I, Symmetry   2 Full Blocks  7 Partial Blocksize   0
 @PUTFOCK-I, Symmetry   3 Full Blocks  7 Partial Blocksize   0
 @PUTFOCK-I, Symmetry   4 Full Blocks  4 Partial Blocksize   0
 @PUTFOCK-I, Symmetry   5 Full Blocks  7 Partial Blocksize   0
 @PUTFOCK-I, Symmetry   6 Full Blocks  4 Partial Blocksize   0
 @PUTFOCK-I, Symmetry   7 Full Blocks  4 Partial Blocksize   0
 @PUTFOCK-I, Symmetry   8 Full Blocks  2 Partial Blocksize   2
  @DMPJOB-I, Rotating orbitals to semicanonical basis.
             *** Eigenvalues correspond to new basis. ***

  @PRJDEN-I, Basis set contains h and/or higher angular momentum functions.
             Analysis of density matrix symmetry not available.
             Check irreps of the molecular orbitals in the full point group
             for presence of an asymmetric solution.

 
  ORBITAL EIGENVALUES (ALPHA)  (1H = 27.2113834 eV)

       MO #        E(hartree)               E(eV)           FULLSYM    COMPSYM
       ----   --------------------   --------------------   -------   ---------
    1     1         -26.4050362221        -718.5175643298      Ag        Ag (1)
    2     2          -1.6632999857         -45.2606936196      Ag        Ag (1)
    3   112          -0.8343171141         -22.7029228693      Au       B1u (5)
    4    68          -0.7288920096         -19.8341599304       u       B3u (3)
    5    40          -0.7288920096         -19.8341599304       u       B2u (2)
  +++++++++++++++++++++++++++++++++++++++++++++++++++++++++++++++++++++++++++++
    6   113           0.1269137539           3.4534988164      Au       B1u (5)
    7    69           0.1324355415           3.6037542956       u       B3u (3)
    8    41           0.1324355415           3.6037542956       u       B2u (2)
    9     3           0.1501903633           4.0868875591      Ag        Ag (1)
   10     4           0.5148351864          14.0093776456      Ag        Ag (1)
   11   140           0.5181181876          14.0987126493       g       B3g (6)
   12   156           0.5181181876          14.0987126493       g       B2g (7)
   13     5           0.5273314178          14.3494173897       g        Ag (1)
   14    96           0.5273314178          14.3494173897       g       B1g (4)
   15   114           0.5688930462          15.4803667949      Au       B1u (5)
   16    70           0.5923832364          16.1195673661       u       B3u (3)
   17    42           0.5923832364          16.1195673661       u       B2u (2)
   18     6           0.9043411379          24.6083734289      Ag        Ag (1)
   19   115           1.3273035394          36.1177654991      Au       B1u (5)
   20    71           1.3295370146          36.1785414499       u       B3u (3)
   21    43           1.3295370146          36.1785414499       u       B2u (2)
   22   172           1.3362338466          36.3607715120       u        Au (8)
   23   116           1.3362338466          36.3607715120       u       B1u (5)
   24    44           1.3473212582          36.6624753192       u       B2u (2)
   25    72           1.3473212582          36.6624753192       u       B3u (3)
   26     7           1.5903982059          43.2769353408      Ag        Ag (1)
   27   141           1.6019095639          43.5901753166       g       B3g (6)
   28   157           1.6019095639          43.5901753166       g       B2g (7)
   29    97           1.6327521918          44.4294458886       g       B1g (4)
   30     8           1.6327521918          44.4294458886       g        Ag (1)
   31   117           1.9255287636          52.3963014343      Au       B1u (5)
   32    73           1.9793649938          53.8612597345       u       B3u (3)
   33    45           1.9793649938          53.8612597345       u       B2u (2)
   34     9           3.3062966777          89.9689065322      Ag        Ag (1)
   35   158           3.3085393043          90.0299315043       g       B2g (7)
   36   142           3.3085393043          90.0299315043       g       B3g (6)
   37    10           3.3152716738          90.2131285911       g        Ag (1)
   38    98           3.3152716738          90.2131285911       g       B1g (4)
   39   143           3.3265099322          90.5189371488       g       B3g (6)
   40   159           3.3265099322          90.5189371488       g       B2g (7)
   41    99           3.3422875630          90.9482683090       g       B1g (4)
   42    11           3.3422875630          90.9482683090       g        Ag (1)
   43    12           3.5050716586          95.3778487453      Ag        Ag (1)
   44   118           3.8137107617         103.7763457145      Au       B1u (5)
   45    74           3.8197582561         103.9409064020       u       B3u (3)
   46    46           3.8197582561         103.9409064020       u       B2u (2)
   47   173           3.8379038883         104.4346741570       u        Au (8)
   48   119           3.8379038883         104.4346741570       u       B1u (5)
   49    75           3.8676827105         105.2449971054       u       B3u (3)
   50    47           3.8676827105         105.2449971054       u       B2u (2)
   51    13           4.1287984035         112.3503163387      Ag        Ag (1)
   52   144           4.1489617524         112.8989889578       g       B3g (6)
   53   160           4.1489617524         112.8989889578       g       B2g (7)
   54   100           4.2056623512         114.4418906885       g       B1g (4)
   55    14           4.2056623512         114.4418906885       g        Ag (1)
   56   120           5.7262201360         155.8183715527      Au       B1u (5)
   57    76           5.8065762840         158.0049735054       u       B3u (3)
   58    48           5.8065762840         158.0049735054       u       B2u (2)
   59   121           7.9305283389         215.8006471950      Au       B1u (5)
   60    49           7.9329730771         215.8671719017       u       B2u (2)
   61    77           7.9329730771         215.8671719017       u       B3u (3)
   62   122           7.9403060402         216.0667119730       u       B1u (5)
   63   174           7.9403060402         216.0667119730       u        Au (8)
   64    50           7.9525239297         216.3991776480       u       B2u (2)
   65    78           7.9525239297         216.3991776480       u       B3u (3)
   66   175           7.9696228462         216.8644628201                Au (8)
   67   123           7.9696228462         216.8644628201               B1u (5)
   68    79           7.9916005376         217.4625062083       u       B3u (3)
   69    51           7.9916005376         217.4625062084       u       B2u (2)
   70    15           8.9251046893         242.8644455859      Ag        Ag (1)
   71   161           8.9299522340         242.9963539843       g       B2g (7)
   72   145           8.9299522340         242.9963539843       g       B3g (6)
   73   101           8.9444824993         243.3917426033       g       B1g (4)
   74    16           8.9444824993         243.3917426033       g        Ag (1)
   75   146           8.9686635738         244.0497430935       g       B3g (6)
   76   162           8.9686635738         244.0497430935       g       B2g (7)
   77   102           9.0024590207         244.9693639560       g       B1g (4)
   78    17           9.0024590207         244.9693639560       g        Ag (1)
   79   124           9.7441676586         265.1522820716      Au       B1u (5)
   80    52           9.7545638068         265.4351756468       u       B2u (2)
   81    80           9.7545638068         265.4351756468       u       B3u (3)
   82   125           9.7857271783         266.2831740976       u       B1u (5)
   83   176           9.7857271783         266.2831740976       u        Au (8)
   84    81           9.8371063691         267.6812729557       u       B3u (3)
   85    53           9.8371063691         267.6812729557       u       B2u (2)
   86    18          10.6207539526         289.0054078005      Ag        Ag (1)
   87   163          10.6452637852         289.6723542527       g       B2g (7)
   88   147          10.6452637852         289.6723542527       g       B3g (6)
   89   103          10.7169965438         291.6243018495       g       B1g (4)
   90    19          10.7169965438         291.6243018495       g        Ag (1)
   91    20          11.5821966960         315.1675949082      Ag        Ag (1)
   92   126          16.2511851607         442.2172301121      Au       B1u (5)
   93    82          16.3411476108         444.6652328325       u       B3u (3)
   94    54          16.3411476108         444.6652328325       u       B2u (2)
   95   127          20.8173960613         566.4701456127      Au       B1u (5)
   96    83          20.8215455545         566.5830590630       u       B3u (3)
   97    55          20.8215455545         566.5830590630       u       B2u (2)
   98   128          20.8339912372         566.9217233074       u       B1u (5)
   99   177          20.8339912372         566.9217233074       u        Au (8)
  100    56          20.8547251434         567.4859215797       u       B2u (2)
  101    84          20.8547251434         567.4859215797       u       B3u (3)
  102   129          20.8837354690         568.2753326719               B1u (5)
  103   178          20.8837354690         568.2753326719                Au (8)
  104    85          20.9210086980         569.2895887965       u       B2u (3)
  105    57          20.9210086980         569.2895887965       u       B3u (2)
  106    21          24.3854258032         663.5611709023      Ag        Ag (1)
  107   164          24.3925028283         663.7537465472       g       B2g (7)
  108   148          24.3925028283         663.7537465472       g       B3g (6)
  109    22          24.4137186694         664.3310589328       g        Ag (1)
  110   104          24.4137186694         664.3310589328       g       B1g (4)
  111   165          24.4490297842         665.2919232159       g       B2g (7)
  112   149          24.4490297842         665.2919232159       g       B3g (6)
  113    23          24.4983708244         666.6345611774       g        Ag (1)
  114   105          24.4983708244         666.6345611774       g       B1g (4)
  115   130          25.3658722932         690.2404762461      Au       B1u (5)
  116    58          25.3779348220         690.5687143421       u       B2u (2)
  117    86          25.3779348220         690.5687143421       u       B3u (3)
  118   179          25.4140667795         691.5519148914       u        Au (8)
  119   131          25.4140667795         691.5519148914       u       B1u (5)
  120    87          25.4740143887         693.1831722692       u       B3u (3)
  121    59          25.4740143887         693.1831722692       u       B2u (2)
  122    24          28.0691303167         763.7998667515      Ag        Ag (1)
  123   150          28.0927588256         764.4428311679       g       B3g (6)
  124   166          28.0927588256         764.4428311679       g       B2g (7)
  125   106          28.1631411646         766.3580319787       g       B1g (4)
  126    25          28.1631411646         766.3580319787       g        Ag (1)
  127    26          35.4976897330         965.9412451381      Ag        Ag (1)
  128   132          46.4287373690        1263.3901733264      Au       B1u (5)
  129    60          46.5059909753        1265.4923508271       u       B2u (2)
  130    88          46.5059909753        1265.4923508271       u       B3u (3)
  131    27          79.2690911871        2157.0216320629      Ag        Ag (1)
  132   167          79.2867848824        2157.5031019890       g       B2g (7)
  133   151          79.2867848824        2157.5031019890       g       B3g (6)
  134   107          79.3396484749        2158.9415934727       g       B1g (4)
  135    28          79.3396484749        2158.9415934727       g        Ag (1)
  136   133          92.7242002874        2523.1537644791      Au       B1u (5)
  137    89          92.7329140126        2523.3908769959       u       B3u (3)
  138    61          92.7329140126        2523.3908769959       u       B2u (2)
  139   180          92.7590339642        2524.1016370140       u        Au (8)
  140   134          92.7590339642        2524.1016370140       u       B1u (5)
  141    62          92.8024970098        2525.2843266102       u       B2u (2)
  142    90          92.8024970098        2525.2843266102       u       B3u (3)
  143    29         101.6766441882        2766.7621478309      Ag        Ag (1)
  144   135         131.3828352297        3575.1087016136      Au       B1u (5)
  145    91         131.4354081942        3576.5392847089       u       B3u (3)
  146    63         131.4354081942        3576.5392847089       u       B2u (2)
  147    30         233.9495665365        6366.0913512879      Ag        Ag (1)
  148   152         233.9597820981        6366.3693308505       g       B3g (6)
  149   168         233.9597820981        6366.3693308506       g       B2g (7)
  150   108         233.9903667740        6367.2015821943       g       B1g (4)
  151    31         233.9903667740        6367.2015821943       g        Ag (1)
  152    32         249.6386517730        6793.0130648545      Ag        Ag (1)
  153   169         249.6422269212        6793.1103495817       g       B2g (7)
  154   153         249.6422269212        6793.1103495817       g       B3g (6)
  155   109         249.6529514238        6793.4021781353       g       B1g (4)
  156    33         249.6529514238        6793.4021781353       g        Ag (1)
  157   170         249.6708224701        6793.8884740273       g       B2g (7)
  158   154         249.6708224701        6793.8884740274       g       B3g (6)
  159    34         249.6958354227        6794.5691110697       g        Ag (1)
  160   110         249.6958354227        6794.5691110698       g       B1g (4)
  161    35         272.3790137699        7411.8097738053      Ag        Ag (1)
  162   136         366.2358425223        9965.7839256960      Au       B1u (5)
  163    92         366.2653810445        9966.5877097481       u       B3u (3)
  164    64         366.2653810445        9966.5877097483       u       B2u (2)
  165   137         367.2972592400        9994.6665429477      Au       B1u (5)
  166    65         367.3011423722        9994.7722083483       u       B2u (2)
  167    93         367.3011423722        9994.7722083483       u       B3u (3)
  168   181         367.3128183923        9995.0899290082       u        Au (8)
  169   138         367.3128183923        9995.0899290082       u       B1u (5)
  170    94         367.3323927973        9995.6225756478       u       B3u (3)
  171    66         367.3323927973        9995.6225756479       u       B2u (2)
  172    36         712.7103557834       19393.8347443717      Ag        Ag (1)
  173   171         712.7149667916       19393.9602162840       g       B2g (7)
  174   155         712.7149667916       19393.9602162840       g       B3g (6)
  175    37         712.7286956613       19394.3337978211       g        Ag (1)
  176   111         712.7286956613       19394.3337978211       g       B1g (4)
  177    38         716.5595455039       19498.5765216374      Ag        Ag (1)
  178   139        1028.6321362294       27990.5034364983      Au       B1u (5)
  179    95        1028.6454956007       27990.8669634743       u       B3u (3)
  180    67        1028.6454956007       27990.8669634744       u       B2u (2)
  181    39        2519.3522537344       68555.0600960218      Ag        Ag (1)


 
  ORBITAL EIGENVALUES ( BETA)  (1H = 27.2113834 eV)

       MO #        E(hartree)               E(eV)           FULLSYM    COMPSYM
       ----   --------------------   --------------------   -------   ---------
    1     1         -26.3613347825        -717.3283877025      Ag        Ag (1)
    2     2          -1.4824626888         -40.3398606024      Ag        Ag (1)
    3    68          -0.6827649216         -18.5789780542       u       B3u (3)
    4    40          -0.6827649216         -18.5789780542       u       B2u (2)
  +++++++++++++++++++++++++++++++++++++++++++++++++++++++++++++++++++++++++++++
    5   112           0.0287701434           0.7828754026      Au       B1u (5)
    6    69           0.1331709993           3.6237671201       u       B3u (3)
    7    41           0.1331709993           3.6237671201       u       B2u (2)
    8     3           0.1551620454           4.2221739070      Ag        Ag (1)
    9   113           0.1620363770           4.4092339796      Au       B1u (5)
   10     4           0.5241778222          14.2636036885      Ag        Ag (1)
   11   140           0.5249978904          14.2859188788       g       B3g (6)
   12   156           0.5249978904          14.2859188788       g       B2g (7)
   13     5           0.5282615432          14.3747273872       g        Ag (1)
   14    96           0.5282615432          14.3747273872       g       B1g (4)
   15    70           0.5977273121          16.2649870585       u       B3u (3)
   16    42           0.5977273121          16.2649870585       u       B2u (2)
   17   114           0.6542478588          17.8029893246      Au       B1u (5)
   18     6           0.9259569207          25.1965687806      Ag        Ag (1)
   19   115           1.3339619612          36.2989503662      Au       B1u (5)
   20    43           1.3354759456          36.3401479761       u       B2u (2)
   21    71           1.3354759456          36.3401479761       u       B3u (3)
   22   172           1.3401238118          36.4666228455       u        Au (8)
   23   116           1.3401238118          36.4666228455       u       B1u (5)
   24    44           1.3480646561          36.6827042048       u       B2u (2)
   25    72           1.3480646561          36.6827042048       u       B3u (3)
   26    97           1.6392605421          44.6065471023       g       B1g (4)
   27     7           1.6392605421          44.6065471023       g        Ag (1)
   28   157           1.6474953167          44.8306267111       g       B2g (7)
   29   141           1.6474953167          44.8306267111       g       B3g (6)
   30     8           1.6514504804          44.9382521887      Ag        Ag (1)
   31    73           1.9928469936          54.2281236016       u       B3u (3)
   32    45           1.9928469936          54.2281236016       u       B2u (2)
   33   117           2.0510855766          55.8128760105      Au       B1u (5)
   34     9           3.3157173870          90.2252570638      Ag        Ag (1)
   35   158           3.3174123129          90.2713783425       g       B2g (7)
   36   142           3.3174123129          90.2713783425       g       B3g (6)
   37    98           3.3225215242          90.4104070488       g       B1g (4)
   38    10           3.3225215242          90.4104070488       g        Ag (1)
   39   143           3.3311186770          90.6443474717       g       B3g (6)
   40   159           3.3311186770          90.6443474717       g       B2g (7)
   41    11           3.3433229221          90.9764418636       g        Ag (1)
   42    99           3.3433229221          90.9764418636       g       B1g (4)
   43    12           3.5442064710          96.4427611324      Ag        Ag (1)
   44   118           3.8468594756         104.6783680753      Au       B1u (5)
   45    74           3.8494237642         104.7481459164       u       B3u (3)
   46    46           3.8494237642         104.7481459164       u       B2u (2)
   47   173           3.8575019803         104.9679653524       u        Au (8)
   48   119           3.8575019803         104.9679653524       u       B1u (5)
   49    47           3.8715697092         105.3507677160       u       B2u (2)
   50    75           3.8715697092         105.3507677160       u       B3u (3)
   51   100           4.2184266943         114.7892261225       g       B1g (4)
   52    13           4.2184266943         114.7892261225       g        Ag (1)
   53   144           4.2313711148         115.1414617116       g       B3g (6)
   54   160           4.2313711148         115.1414617116       g       B2g (7)
   55    14           4.2373407909         115.3039048579      Ag        Ag (1)
   56    76           5.8248509566         158.5022526267       u       B3u (3)
   57    48           5.8248509566         158.5022526267       u       B2u (2)
   58   120           5.8482639184         159.1393517076      Au       B1u (5)
   59   121           7.9447669888         216.1881005546      Au       B1u (5)
   60    49           7.9466688475         216.2398527624       u       B2u (2)
   61    77           7.9466688475         216.2398527624       u       B3u (3)
   62   122           7.9523892306         216.3955123010       u       B1u (5)
   63   174           7.9523892306         216.3955123010       u        Au (8)
   64    50           7.9619721359         216.6562764107       u       B2u (2)
   65    78           7.9619721359         216.6562764107       u       B3u (3)
   66   123           7.9754895934         217.0241051290               B1u (5)
   67   175           7.9754895934         217.0241051290                Au (8)
   68    79           7.9930397661         217.5016696072       u       B3u (3)
   69    51           7.9930397661         217.5016696072       u       B2u (2)
   70    15           8.9552891095         243.6858054166      Ag        Ag (1)
   71   161           8.9583883610         243.7701403384       g       B2g (7)
   72   145           8.9583883610         243.7701403384       g       B3g (6)
   73    16           8.9677368823         244.0245265345       g        Ag (1)
   74   101           8.9677368823         244.0245265345       g       B1g (4)
   75   146           8.9834833472         244.4530096289       g       B3g (6)
   76   162           8.9834833472         244.4530096289       g       B2g (7)
   77   102           9.0058651209         245.0620486537       g       B1g (4)
   78    17           9.0058651209         245.0620486537       g        Ag (1)
   79   124           9.8058709051         266.8313127693      Au       B1u (5)
   80    52           9.8099726510         266.9429269499       u       B2u (2)
   81    80           9.8099726510         266.9429269499       u       B3u (3)
   82   125           9.8227075879         267.2894622010       u       B1u (5)
   83   176           9.8227075879         267.2894622010       u        Au (8)
   84    81           9.8447413545         267.8890314713       u       B3u (3)
   85    53           9.8447413545         267.8890314713       u       B2u (2)
   86    18          10.7228128533         291.7825716783      Ag        Ag (1)
   87   147          10.7242304144         291.8211454773       g       B3g (6)
   88   163          10.7242304144         291.8211454773       g       B2g (7)
   89   103          10.7307904543         291.9996532369       g       B1g (4)
   90    19          10.7307904543         291.9996532369       g        Ag (1)
   91    20          11.6215343671         316.2380273591      Ag        Ag (1)
   92   126          16.3397936920         444.6283908291      Au       B1u (5)
   93    82          16.3577310883         445.1164921966       u       B3u (3)
   94    54          16.3577310883         445.1164921966       u       B2u (2)
   95   127          20.8469150228         567.2733973928      Au       B1u (5)
   96    83          20.8499598065         567.3562501698       u       B3u (3)
   97    55          20.8499598065         567.3562501698       u       B2u (2)
   98   128          20.8591151458         567.6053796158       u       B1u (5)
   99   177          20.8591151458         567.6053796158       u        Au (8)
  100    56          20.8744433776         568.0224820097       u       B2u (2)
  101    84          20.8744433776         568.0224820097       u       B3u (3)
  102   129          20.8960464234         568.6103307719               B1u (5)
  103   178          20.8960464234         568.6103307719                Au (8)
  104    57          20.9240628986         569.3726978186       u       B2u (2)
  105    85          20.9240628986         569.3726978186       u       B3u (3)
  106    21          24.4320641001         664.8302634803      Ag        Ag (1)
  107   164          24.4364783466         664.9503812352       g       B2g (7)
  108   148          24.4364783466         664.9503812352       g       B3g (6)
  109    22          24.4497736922         665.3121659807       g        Ag (1)
  110   104          24.4497736922         665.3121659807       g       B1g (4)
  111   165          24.4721054034         665.9198427373       g       B2g (7)
  112   149          24.4721054034         665.9198427373       g       B3g (6)
  113   105          24.5037243465         666.7802379215       g       B1g (4)
  114    23          24.5037243465         666.7802379215       g        Ag (1)
  115   130          25.4272337336         691.9102059251      Au       B1u (5)
  116    58          25.4332005425         692.0725710500       u       B2u (2)
  117    86          25.4332005425         692.0725710500       u       B3u (3)
  118   179          25.4512975766         692.5650163855       u        Au (8)
  119   131          25.4512975766         692.5650163855       u       B1u (5)
  120    87          25.4819874871         693.4001313048       u       B3u (3)
  121    59          25.4819874871         693.4001313048       u       B2u (2)
  122    24          28.1366673383         765.6376425412      Ag        Ag (1)
  123   150          28.1456371639         765.8817239034       g       B3g (6)
  124   166          28.1456371639         765.8817239034       g       B2g (7)
  125   106          28.1735602566         766.6415498866       g       B1g (4)
  126    25          28.1735602566         766.6415498866       g        Ag (1)
  127    26          35.5231773665         966.6347989065      Ag        Ag (1)
  128   132          46.4775857453        1264.7194052209      Au       B1u (5)
  129    88          46.5166440355        1265.7822353326       u       B3u (3)
  130    60          46.5166440355        1265.7822353326       u       B2u (2)
  131    27          79.3016699627        2157.9081456142      Ag        Ag (1)
  132   167          79.3124933736        2158.2026655997       g       B2g (7)
  133   151          79.3124933736        2158.2026655998       g       B3g (6)
  134   107          79.3452460302        2159.0939106964       g       B1g (4)
  135    28          79.3452460302        2159.0939106964       g        Ag (1)
  136   133          92.7557775344        2524.0130250530      Au       B1u (5)
  137    89          92.7614132466        2524.1663805795       u       B3u (3)
  138    61          92.7614132466        2524.1663805795       u       B2u (2)
  139   180          92.7783595214        2524.6275121611       u        Au (8)
  140   134          92.7783595214        2524.6275121611       u       B1u (5)
  141    62          92.8067280233        2525.3994583415       u       B2u (2)
  142    90          92.8067280233        2525.3994583415       u       B3u (3)
  143    29         101.6888130277        2767.0932787877      Ag        Ag (1)
  144   135         131.4035157858        3575.6714481540      Au       B1u (5)
  145    91         131.4404436034        3576.6763051593       u       B3u (3)
  146    63         131.4404436034        3576.6763051593       u       B2u (2)
  147    30         233.9609617989        6366.4014321420      Ag        Ag (1)
  148   152         233.9688347862        6366.6156670196       g       B3g (6)
  149   168         233.9688347862        6366.6156670196       g       B2g (7)
  150   108         233.9925111076        6367.2599324764       g       B1g (4)
  151    31         233.9925111076        6367.2599324764       g        Ag (1)
  152    32         249.6522530732        6793.3831750480      Ag        Ag (1)
  153   169         249.6550693516        6793.4598098804       g       B2g (7)
  154   153         249.6550693516        6793.4598098804       g       B3g (6)
  155   109         249.6635217056        6793.6898101260       g       B1g (4)
  156    33         249.6635217056        6793.6898101261       g        Ag (1)
  157   170         249.6776206448        6794.0734617664       g       B2g (7)
  158   154         249.6776206448        6794.0734617665       g       B3g (6)
  159    34         249.6973835323        6794.6112372744       g        Ag (1)
  160   110         249.6973835323        6794.6112372744       g       B1g (4)
  161    35         272.3838642583        7411.9417623062      Ag        Ag (1)
  162   136         366.2430298421        9965.9795026104      Au       B1u (5)
  163    92         366.2672823375        9966.6394465621       u       B3u (3)
  164    64         366.2672823375        9966.6394465622       u       B2u (2)
  165   137         367.3048802149        9994.8739202201      Au       B1u (5)
  166    93         367.3080406320        9994.9599195390       u       B3u (3)
  167    65         367.3080406320        9994.9599195390       u       B2u (2)
  168   181         367.3175465052        9995.2185874994       u        Au (8)
  169   138         367.3175465052        9995.2185874994       u       B1u (5)
  170    94         367.3334867631        9995.6523439692       u       B3u (3)
  171    66         367.3334867631        9995.6523439692       u       B2u (2)
  172    36         712.7133824255       19393.9171034923      Ag        Ag (1)
  173   171         712.7173769979       19394.0258013327       g       B2g (7)
  174   155         712.7173769979       19394.0258013327       g       B3g (6)
  175    37         712.7293005800       19394.3502584971       g        Ag (1)
  176   111         712.7293005800       19394.3502584971       g       B1g (4)
  177    38         716.5611825612       19498.6210682303      Ag        Ag (1)
  178   139        1028.6341859671       27990.5592126982      Au       B1u (5)
  179    95        1028.6460597801       27990.8823155754       u       B3u (3)
  180    67        1028.6460597801       27990.8823155755       u       B2u (2)
  181    39        2519.3527937989       68555.0747919243      Ag        Ag (1)


  VSCF finished.

 @CHECKOUT-I, Total execution time (CPU/WALL):        5.07/       2.67 seconds.
--executable xvscf finished with status     0 in        2.71 seconds (walltime).
 --invoking executable--
/cvmfs/restricted.computecanada.ca/easybuild/software/2020/avx2/Compiler/intel2020/cfour/2.1/bin/xvtran
 @GETMEM-I,  Allocated   19073 MB of main memory.
  Full UHF integral transformation
  Transformation of IIII integrals :
  2 passes through the AO integral file were required.
      359335 AO integrals were read.
      581941 MO integrals (Spin case AAAA) were written to HF2AA.
      581941 MO integrals (Spin case BBBB) were written to HF2BB.
     1161421 MO integrals (Spin case AABB) were written to HF2AB.
  Transformation of IIJJ integrals :
  2 passes through the AO integral file were required.
     1828662 AO integrals were read.
     2447550 MO integrals (Spin case AAAA) were written to HF2AA.
     2447550 MO integrals (Spin case BBBB) were written to HF2BB.
     4895100 MO integrals (Spin case AABB) were written to HF2AB.
  Transformation of IJIJ integrals :
  2 passes through the AO integral file were required.
     3178649 AO integrals were read.
     4535271 MO integrals (Spin case AAAA) were written to HF2AA.
     4535271 MO integrals (Spin case BBBB) were written to HF2BB.
     9056531 MO integrals (Spin case AABB) were written to HF2AB.
  Transformation of IJKL integrals :
  2 passes through the AO integral file were required.
     7409119 AO integrals were read.
     9564672 MO integrals (Spin case AAAA) were written to HF2AA.
     9564672 MO integrals (Spin case BBBB) were written to HF2BB.
    19129344 MO integrals (Spin case AABB) were written to HF2AB.
  Summary of active molecular orbitals: 
------------------------------------------------------------------------
                         * Spin case alpha *
 
  Index      Eigenvalue    Symmetry    Index      Eigenvalue    Symmetry
------------------------------------------------------------------------
     1       -26.4050362        1        92       131.4354082        3
     2        -1.6633000        1        93       366.2653810        3
     3        -0.7288920        2        94       367.3011424        3
     4        -0.7288920        3        95       367.3323928        3
     5        -0.8343171        5        96      1028.6454956        3
     6         0.1501904        1        97         0.5273314        4
     7         0.5148352        1        98         1.6327522        4
     8         0.5273314        1        99         3.3152717        4
     9         0.9043411        1       100         3.3422876        4
    10         1.5903982        1       101         4.2056624        4
    11         1.6327522        1       102         8.9444825        4
    12         3.3062967        1       103         9.0024590        4
    13         3.3152717        1       104        10.7169965        4
    14         3.3422876        1       105        24.4137187        4
    15         3.5050717        1       106        24.4983708        4
    16         4.1287984        1       107        28.1631412        4
    17         4.2056624        1       108        79.3396485        4
    18         8.9251047        1       109       233.9903668        4
    19         8.9444825        1       110       249.6529514        4
    20         9.0024590        1       111       249.6958354        4
    21        10.6207540        1       112       712.7286957        4
    22        10.7169965        1       113         0.1269138        5
    23        11.5821967        1       114         0.5688930        5
    24        24.3854258        1       115         1.3273035        5
    25        24.4137187        1       116         1.3362338        5
    26        24.4983708        1       117         1.9255288        5
    27        28.0691303        1       118         3.8137108        5
    28        28.1631412        1       119         3.8379039        5
    29        35.4976897        1       120         5.7262201        5
    30        79.2690912        1       121         7.9305283        5
    31        79.3396485        1       122         7.9403060        5
    32       101.6766442        1       123         7.9696228        5
    33       233.9495665        1       124         9.7441677        5
    34       233.9903668        1       125         9.7857272        5
    35       249.6386518        1       126        16.2511852        5
    36       249.6529514        1       127        20.8173961        5
    37       249.6958354        1       128        20.8339912        5
    38       272.3790138        1       129        20.8837355        5
    39       712.7103558        1       130        25.3658723        5
    40       712.7286957        1       131        25.4140668        5
    41       716.5595455        1       132        46.4287374        5
    42      2519.3522537        1       133        92.7242003        5
    43         0.1324355        2       134        92.7590340        5
    44         0.5923832        2       135       131.3828352        5
[...]
   92.7557775343767        92.7783595214456        131.403515785752     
   366.243029842076        367.304880214949        367.317546505167     
   1028.63418596712       0.524997890362170        1.64749531665137     
   3.31741231291070        3.33111867703472        4.23137111476660     
   8.95838836104316        8.98348334722640        10.7242304144419     
   24.4364783466025        24.4721054034049        28.1456371638717     
   79.3124933736280        233.968834786239        249.655069351617     
   249.677620644839        712.717376997919       0.524997890362182     
   1.64749531665135        3.31741231291069        3.33111867703477     
   4.23137111476660        8.95838836104313        8.98348334722641     
   10.7242304144420        24.4364783466024        24.4721054034048     
   28.1456371638717        79.3124933736277        233.968834786239     
   249.655069351616        249.677620644837        712.717376997918     
   1.34012381176773        3.85750198030656        7.95238923063921     
   7.97548959341179        9.82270758792101        20.8591151457512     
   20.8960464234215        25.4512975766414        92.7783595214446     
   367.317546505165     
 @CHECKOUT-I, Total execution time (CPU/WALL):       16.45/     183.44 seconds.
--executable xvtran finished with status     0 in      183.49 seconds (walltime).
 --invoking executable--
/cvmfs/restricted.computecanada.ca/easybuild/software/2020/avx2/Compiler/intel2020/cfour/2.1/bin/xintprc
 @GETMEM-I,  Allocated   19073 MB of main memory.
  @GMOIAA-I, Processing MO integrals for spin case AA.
  @GMOIAA-I, Generation of integral list completed.
                      TYPE                NUMBER
                      ----               --------
                      PPPP              15296473
                      PPPH               1748211
                      PPHH                 51282
                      PHPH                 31479
                      PHHH                  1956
                      HHHH                    33

                     TOTAL              17129434
  @GMOIAA-I, Processing MO integrals for spin case BB.
  @GMOIAA-I, Generation of integral list completed.
                      TYPE                NUMBER
                      ----               --------
                      PPPP              15647652
                      PPPH               1425136
                      PPHH                 33817
                      PHPH                 21653
                      PHHH                  1154
                      HHHH                    22

                     TOTAL              17129434
  @GMOIAB-I, Processing MO integrals for spin case AB.
                      TYPE                NUMBER
                      ----               --------
                      PPPP              30926220
                      PPPH1H             1768270
                      PPPH2H             1409400
                      PPHH                 82218
                      PHPH1P               21439
                      PHPH2P               31849
                      PHHH1P                1363
                      PHHH2P                1598
                      HHHH                    39

                     TOTAL              34242396

  @FORMT2-I, Second-order MP correlation energies:
  @FORMT2-I, Singles contribution will be calculated.
            ------------------------------------------------
            E(SCF)                  =    -99.411200921802 a.u.
            E2(AA)                  =     -0.041161466643 a.u.
            E2(BB)                  =     -0.020918570865 a.u.
            E2(AB)                  =     -0.235733064453 a.u.
            E2(SINGLE)              =     -0.003626690406 a.u.
            E2(TOT)                 =     -0.297813101962 a.u.
            Total MP2 energy        =    -99.712640714169 a.u.
            ------------------------------------------------
            ----------------------------------------------
                     Projected spin multiplicities: 
            ----------------------------------------------
             <0|S^2|0>                  =    0.7500000000.
             <0|S^2 T2|0>               =    0.0000000000.
             Projected <0|S^2 exp(T)|0> =    0.7500000000.
             Approximate spin mult.     =    2.0000000000.
            ----------------------------------------------
   Largest T2 amplitudes for spin case AA:
   i   j   a   b             i   j   a   b             i   j   a   b
-----------------------------------------------------------------------------
[  4   3  71  44]-0.01422 [  5   4 114  71]-0.01299 [  5   3 114  44]-0.01299
[  4   3  74  47]-0.01250 [  5   3 117  47]-0.01234 [  5   4 117  74]-0.01234
[  4   3  71  47]-0.01176 [  4   3  74  44]-0.01176 [  5   4 117  71]-0.01160
[  5   3 117  44]-0.01160 [  4   3  98  11]-0.01143 [  5   3 114  47]-0.01092
[  5   4 114  74]-0.01092 [  5   3 141  10]-0.00991 [  5   4 157  10]-0.00991
-----------------------------------------------------------------------------
   Norm of T2AA vector (    19803 symmetry allowed elements):  0.0753907105.
-----------------------------------------------------------------------------
   Largest T2 amplitudes for spin case BB:
   i   j   a   b             i   j   a   b             i   j   a   b
-----------------------------------------------------------------------------
[  4   3  70  43]-0.01452 [  4   3  73  46]-0.01270 [  4   3  70  46]-0.01194
[  4   3  73  43]-0.01194 [  4   3  97   9]-0.01158 [  4   3 100  15]-0.00864
[  3   2 141 112] 0.00839 [  4   2 157 112] 0.00839 [  4   2  70   8]-0.00828
[  3   2  43   8]-0.00828 [  4   3 100   9] 0.00788 [  4   3  97  15] 0.00788
[  3   2  46   8]-0.00753 [  4   2  73   8]-0.00753 [  4   3  70  42]-0.00708
-----------------------------------------------------------------------------
   Norm of T2BB vector (    12164 symmetry allowed elements):  0.0535838014.
-----------------------------------------------------------------------------
   Largest T2 amplitudes for spin case AB:
       _       _                 _       _                 _       _
   i   j   a   b             i   j   a   b             i   j   a   b
-----------------------------------------------------------------------------
[  4   4  71  70]-0.02063 [  3   3  44  43]-0.02063 [  3   3  47  46]-0.02007
[  4   4  74  73]-0.02007 [  3   3  44  46]-0.01713 [  4   4  71  73]-0.01713
[  5   2  10 112]-0.01706 [  3   3  47  43]-0.01699 [  4   4  74  70]-0.01699
[  3   4  44  70]-0.01645 [  4   3  71  43]-0.01645 [  4   3  74  46]-0.01509
[  3   4  47  73]-0.01509 [  5   4 114  70]-0.01502 [  5   3 114  43]-0.01502
-----------------------------------------------------------------------------
   Norm of T2AB vector (    82218 symmetry allowed elements):  0.1625620833.
-----------------------------------------------------------------------------
 @CHECKOUT-I, Total execution time (CPU/WALL):       13.00/      36.12 seconds.
--executable xintprc finished with status     0 in       36.23 seconds (walltime).
  calling xvcc 
 --invoking executable--
/cvmfs/restricted.computecanada.ca/easybuild/software/2020/avx2/Compiler/intel2020/cfour/2.1/bin/xvcc
 @GETMEM-I,  Allocated   19073 MB of main memory.
   CCSDT   energy will be calculated.
   The reference state is a ROHF wave function.
   The total correlation energy is -0.301482845037 a.u.
  transposing abij 
   The total correlation energy is -0.311652393170 a.u.
  Convergence information after     1 iterations: 
  Largest element of residual vector : -0.55659444E-02.
  Largest element of DIIS residual   : -0.55659444E-02.
  transposing abij 
   The total correlation energy is -0.314480798778 a.u.
  Convergence information after     2 iterations: 
  Largest element of residual vector : -0.18325691E-02.
  Largest element of DIIS residual   : -0.14979774E-02.
  transposing abij 
   The total correlation energy is -0.315238522980 a.u.
  Convergence information after     3 iterations: 
  Largest element of residual vector : -0.10200172E-02.
  Largest element of DIIS residual   : -0.79869682E-03.
  transposing abij 
   The total correlation energy is -0.315465952894 a.u.
  Convergence information after     4 iterations: 
  Largest element of residual vector : -0.52629257E-03.
  Largest element of DIIS residual   : -0.33718460E-03.
  transposing abij 
   The total correlation energy is -0.315496212548 a.u.
  Convergence information after     5 iterations: 
  Largest element of residual vector : -0.22896313E-03.
  Largest element of DIIS residual   : -0.94615586E-04.
  transposing abij 
   The total correlation energy is -0.315509624832 a.u.
  Convergence information after     6 iterations: 
  Largest element of residual vector : -0.69436861E-04.
  Largest element of DIIS residual   : -0.34850940E-04.
  transposing abij 
   The total correlation energy is -0.315513241881 a.u.
  Convergence information after     7 iterations: 
  Largest element of residual vector : -0.26915635E-04.
  Largest element of DIIS residual   : -0.11765773E-04.
  transposing abij 
   The total correlation energy is -0.315514302544 a.u.
  Convergence information after     8 iterations: 
  Largest element of residual vector : -0.79847954E-05.
  Largest element of DIIS residual   : -0.41849043E-05.
  transposing abij 
   The total correlation energy is -0.315514512040 a.u.
  Convergence information after     9 iterations: 
  Largest element of residual vector : -0.31451456E-05.
  Largest element of DIIS residual   :  0.12761974E-05.
  transposing abij 
   The total correlation energy is -0.315514507958 a.u.
  Convergence information after    10 iterations: 
  Largest element of residual vector : -0.88464553E-06.
  Largest element of DIIS residual   : -0.67686820E-06.
  transposing abij 
   The total correlation energy is -0.315514464581 a.u.
  Convergence information after    11 iterations: 
  Largest element of residual vector : -0.30037818E-06.
  Largest element of DIIS residual   :  0.23179631E-06.
  transposing abij 
   The total correlation energy is -0.315514454562 a.u.
  Convergence information after    12 iterations: 
  Largest element of residual vector : -0.11917925E-06.
  Largest element of DIIS residual   : -0.71291152E-07.
  transposing abij 
   The total correlation energy is -0.315514451240 a.u.
  Convergence information after    13 iterations: 
  Largest element of residual vector : -0.56685950E-07.
  Largest element of DIIS residual   : -0.37394717E-07.
  transposing abij 
   The total correlation energy is -0.315514452392 a.u.
  Convergence information after    14 iterations: 
  Largest element of residual vector : -0.31407830E-07.
  Largest element of DIIS residual   : -0.19757550E-07.
  transposing abij 
   The total correlation energy is -0.315514453858 a.u.
  Convergence information after    15 iterations: 
  Largest element of residual vector : -0.11541826E-07.
  Largest element of DIIS residual   : -0.93370238E-08.
  transposing abij 
   The total correlation energy is -0.315514454575 a.u.
  Convergence information after    16 iterations: 
  Largest element of residual vector : -0.61719919E-08.
  Largest element of DIIS residual   : -0.38123991E-08.
  transposing abij 
   The total correlation energy is -0.315514455114 a.u.
  Convergence information after    17 iterations: 
  Largest element of residual vector : -0.26660555E-08.
  Largest element of DIIS residual   :  0.14288299E-08.
  transposing abij 
   The total correlation energy is -0.315514455270 a.u.
  Convergence information after    18 iterations: 
  Largest element of residual vector : -0.80910448E-09.
  Largest element of DIIS residual   :  0.64259035E-09.
  transposing abij 
   The total correlation energy is -0.315514455288 a.u.
  Convergence information after    19 iterations: 
  Largest element of residual vector : -0.64141598E-09.
  Largest element of DIIS residual   : -0.32661666E-09.
  transposing abij 
   The total correlation energy is -0.315514455293 a.u.
  Convergence information after    20 iterations: 
  Largest element of residual vector : -0.23595686E-09.
  Largest element of DIIS residual   :  0.22356230E-09.
  transposing abij 
   The total correlation energy is -0.315514455296 a.u.
  Convergence information after    21 iterations: 
  Largest element of residual vector : -0.26055228E-09.
  Largest element of DIIS residual   :  0.67774329E-10.
  transposing abij 
   The total correlation energy is -0.315514455292 a.u.
  Convergence information after    22 iterations: 
  Largest element of residual vector :  0.27720213E-10.
  Largest element of DIIS residual   :  0.22561115E-10.
  Amplitude equations converged in    22iterations.
   The total correlation energy is -0.315514455291 a.u.
   The CC iterations have converged.

            ----------------------------------------------
                     Projected spin multiplicities: 
            ----------------------------------------------
             <0|S^2|0>                  =    0.7500000000.
             <0|S^2 (T2+T1**2) |0>      =    0.0000000000.
             <0|S^2 T1|0>               =   -0.0000000000.
             Projected <0|S^2 exp(T)|0> =    0.7500000000.
             Approximate spin mult.     =    2.0000000000.
            ----------------------------------------------
   Largest T1 amplitudes for spin case AA:
   i       a                 i       a                 i       a    
-----------------------------------------------------------------------------
[  2      10    ] 0.01460 [  2      16    ]-0.01154 [  2       7    ]-0.00676
[  3      47    ] 0.00565 [  4      74    ] 0.00565 [  5     113    ]-0.00532
[  2       9    ] 0.00520 [  5     114    ]-0.00481 [  2      15    ]-0.00440
[  2      21    ] 0.00364 [  3      48    ] 0.00360 [  4      75    ] 0.00360
[  4      77    ]-0.00358 [  3      50    ]-0.00358 [  5     120    ]-0.00293
-----------------------------------------------------------------------------
   Norm of T1AA vector (      155 symmetry allowed elements):  0.0259511565.
-----------------------------------------------------------------------------
   Largest T2 amplitudes for spin case AA:
   i   j   a   b             i   j   a   b             i   j   a   b
-----------------------------------------------------------------------------
[  4   3  71  44]-0.01356 [  5   3 114  44]-0.01296 [  5   4 114  71]-0.01296
[  4   3  98  11]-0.01234 [  5   3 117  47]-0.01181 [  5   4 117  74]-0.01181
[  4   3  74  47]-0.01163 [  5   3 117  44]-0.01115 [  5   4 117  71]-0.01115
[  4   3  71  47]-0.01095 [  4   3  74  44]-0.01095 [  5   3 114  47]-0.01066
[  5   4 114  74]-0.01066 [  5   3 141  10]-0.01004 [  5   4 157  10]-0.01004
-----------------------------------------------------------------------------
   Norm of T2AA vector (    19803 symmetry allowed elements):  0.0745515534.
-----------------------------------------------------------------------------
   Largest T1 amplitudes for spin case BB:
   i       a                 i       a                 i       a    
-----------------------------------------------------------------------------
[  3      43    ]-0.01310 [  4      70    ]-0.01310 [  2      10    ]-0.01184
[  4      69    ]-0.01153 [  3      42    ]-0.01153 [  2      16    ] 0.00916
[  2       8    ]-0.00879 [  2       5    ] 0.00865 [  2       6    ] 0.00593
[  4      76    ]-0.00324 [  3      49    ]-0.00324 [  4      74    ]-0.00302
[  3      47    ]-0.00302 [  2      20    ]-0.00297 [  3      44    ] 0.00234
-----------------------------------------------------------------------------
   Norm of T1BB vector (      128 symmetry allowed elements):  0.0330867181.
-----------------------------------------------------------------------------
   Largest T2 amplitudes for spin case BB:
   i   j   a   b             i   j   a   b             i   j   a   b
-----------------------------------------------------------------------------
[  4   3  70  43]-0.01451 [  4   3  97   9]-0.01256 [  4   3  73  46]-0.01139
[  4   3  70  46]-0.01109 [  4   3  73  43]-0.01109 [  3   2 141 112] 0.01000
[  4   2 157 112] 0.01000 [  4   3 100  15]-0.00860 [  4   3 100   9] 0.00817
[  4   3  97  15] 0.00817 [  4   2  70   8]-0.00760 [  3   2  43   8]-0.00760
[  4   3  69  43]-0.00748 [  4   3  70  42]-0.00748 [  4   3  97   7] 0.00659
-----------------------------------------------------------------------------
   Norm of T2BB vector (    12164 symmetry allowed elements):  0.0538057133.
-----------------------------------------------------------------------------
   Largest T2 amplitudes for spin case AB:
       _       _                 _       _                 _       _
   i   j   a   b             i   j   a   b             i   j   a   b
-----------------------------------------------------------------------------
[  3   3  44  43]-0.02291 [  4   4  71  70]-0.02291 [  3   3  47  46]-0.02161
[  4   4  74  73]-0.02161 [  5   2  10 112]-0.02138 [  3   3  47  43]-0.01930
[  4   4  74  70]-0.01930 [  3   3  44  46]-0.01894 [  4   4  71  73]-0.01894
[  3   2 141 112] 0.01845 [  4   2 157 112] 0.01845 [  3   4  44  70]-0.01736
[  4   3  71  43]-0.01736 [  5   4 114  70]-0.01638 [  5   3 114  43]-0.01638
-----------------------------------------------------------------------------
   Norm of T2AB vector (    82218 symmetry allowed elements):  0.1824175200.
-----------------------------------------------------------------------------
       Summary of iterative solution of CC equations 
      -----------------------------------------------------------
                       Correlation           Total
       Iteration         Energy              Energy
      -----------------------------------------------------------
            0        -0.301482845037     -99.712683766839  DIIS 
            1        -0.311652393170     -99.722853314972  DIIS 
            2        -0.314480798778     -99.725681720579  DIIS 
            3        -0.315238522980     -99.726439444782  DIIS 
            4        -0.315465952894     -99.726666874696  DIIS 
            5        -0.315496212548     -99.726697134349  DIIS 
            6        -0.315509624832     -99.726710546634  DIIS 
            7        -0.315513241881     -99.726714163683  DIIS 
            8        -0.315514302544     -99.726715224346  DIIS 
            9        -0.315514512040     -99.726715433842  DIIS 
           10        -0.315514507958     -99.726715429760  DIIS 
           11        -0.315514464581     -99.726715386383  DIIS 
           12        -0.315514454562     -99.726715376364  DIIS 
           13        -0.315514451240     -99.726715373042  DIIS 
           14        -0.315514452392     -99.726715374193  DIIS 
           15        -0.315514453858     -99.726715375660  DIIS 
           16        -0.315514454575     -99.726715376377  DIIS 
           17        -0.315514455114     -99.726715376916  DIIS 
           18        -0.315514455270     -99.726715377072  DIIS 
           19        -0.315514455288     -99.726715377090  DIIS 
           20        -0.315514455293     -99.726715377095  DIIS 
           21        -0.315514455296     -99.726715377098  DIIS 
           22        -0.315514455291     -99.726715377093  DIIS 
      -----------------------------------------------------------
      A miracle has come to pass. The CC iterations have converged.
      The reference energy is       -99.41120092180182 a.u.
      The correlation energy is      -0.31551445529110 a.u.
      The total energy is           -99.72671537709293 a.u.
 @CHECKOUT-I, Total execution time (CPU/WALL):     5355.25/    2842.35 seconds.
--executable xvcc finished with status     0 in     2842.42 seconds (walltime).
  The final electronic energy is       -99.726715377092930 a.u. 
  This computation required                         3104.99 seconds (walltime).
Program finished with exit code 0 at: Mon Mar 25 05:10:15 EDT 2024
